 Output coordinates in angstroms (scale by  1.889725989 to convert to a.u.)

  No.       Tag          Charge          X              Y              Z
 ---- ---------------- ---------- -------------- -------------- --------------
    1 O                    8.0000     0.00000000    -1.08536160     0.22160403
    2 O                    8.0000     0.00000000     0.00000000    -0.44320807
    3 O                    8.0000     0.00000000     1.08536160     0.22160403

         Total SCF energy =   -224.265305313268

 Vector    1  Occ=2.000000D+00  E=-2.090920D+01  Symmetry=a1

 Vector    2  Occ=2.000000D+00  E=-2.070585D+01  Symmetry=b2

 Vector    3  Occ=2.000000D+00  E=-2.070577D+01  Symmetry=a1

 Vector    4  Occ=2.000000D+00  E=-1.756404D+00  Symmetry=a1

 Vector    5  Occ=2.000000D+00  E=-1.434681D+00  Symmetry=b2

 Vector    6  Occ=2.000000D+00  E=-1.092071D+00  Symmetry=a1

 Vector    7  Occ=2.000000D+00  E=-8.296099D-01  Symmetry=a1

 Vector    8  Occ=2.000000D+00  E=-7.952975D-01  Symmetry=b2

 Vector    9  Occ=2.000000D+00  E=-7.803235D-01  Symmetry=b1

 Vector   10  Occ=2.000000D+00  E=-5.593011D-01  Symmetry=b2

 Vector   11  Occ=2.000000D+00  E=-5.465542D-01  Symmetry=a1

 Vector   12  Occ=2.000000D+00  E=-4.813974D-01  Symmetry=a2

 Vector   13  Occ=0.000000D+00  E=-4.062565D-02  Symmetry=b1

 Vector   14  Occ=0.000000D+00  E= 3.067237D-01  Symmetry=a1

 Vector   15  Occ=0.000000D+00  E= 3.981883D-01  Symmetry=b2

 Vector   16  Occ=0.000000D+00  E= 1.002070D+00  Symmetry=a1

 Vector   17  Occ=0.000000D+00  E= 1.066404D+00  Symmetry=b1

 Vector   18  Occ=0.000000D+00  E= 1.071371D+00  Symmetry=b2

 Vector   19  Occ=0.000000D+00  E= 1.074124D+00  Symmetry=a1

 Vector   20  Occ=0.000000D+00  E= 1.160859D+00  Symmetry=b2

 Vector   21  Occ=0.000000D+00  E= 1.194973D+00  Symmetry=a1

 Vector   22  Occ=0.000000D+00  E= 1.206316D+00  Symmetry=a2

 Vector   23  Occ=0.000000D+00  E= 1.235033D+00  Symmetry=b1

 Vector   24  Occ=0.000000D+00  E= 1.319972D+00  Symmetry=b2

 Vector   25  Occ=0.000000D+00  E= 1.352719D+00  Symmetry=a1

 Vector   26  Occ=0.000000D+00  E= 1.872430D+00  Symmetry=b2

 Vector   27  Occ=0.000000D+00  E= 1.968139D+00  Symmetry=a1

 Vector   28  Occ=0.000000D+00  E= 2.261304D+00  Symmetry=a2

 Vector   29  Occ=0.000000D+00  E= 2.344215D+00  Symmetry=a1

 Vector   30  Occ=0.000000D+00  E= 2.438951D+00  Symmetry=b1

 Vector   31  Occ=0.000000D+00  E= 2.795553D+00  Symmetry=b2

 Vector   32  Occ=0.000000D+00  E= 2.823947D+00  Symmetry=a1

 Vector   33  Occ=0.000000D+00  E= 2.866280D+00  Symmetry=a2

 Vector   34  Occ=0.000000D+00  E= 2.883270D+00  Symmetry=b1

 Vector   35  Occ=0.000000D+00  E= 2.912315D+00  Symmetry=b2

 Vector   36  Occ=0.000000D+00  E= 3.002230D+00  Symmetry=a1

 Vector   37  Occ=0.000000D+00  E= 3.151299D+00  Symmetry=b2

 Vector   38  Occ=0.000000D+00  E= 3.423923D+00  Symmetry=b1

 Vector   39  Occ=0.000000D+00  E= 3.583425D+00  Symmetry=a2

 Vector   40  Occ=0.000000D+00  E= 3.664700D+00  Symmetry=a1

 Vector   41  Occ=0.000000D+00  E= 4.138209D+00  Symmetry=a1

 Vector   42  Occ=0.000000D+00  E= 4.191176D+00  Symmetry=b2

       Multipole analysis of the density wrt the origin
       ------------------------------------------------

     L   x y z        total         open         nuclear
     -   - - -        -----         ----         -------
     0   0 0 0     -0.000000      0.000000     24.000000

     1   1 0 0     -0.000000      0.000000      0.000000
     1   0 1 0      0.000000      0.000000      0.000000
     1   0 0 1     -0.309537      0.000000      0.000000

     2   2 0 0    -10.850003      0.000000      0.000000
     2   1 1 0      0.000000      0.000000      0.000000
     2   1 0 1     -0.000000      0.000000      0.000000
     2   0 2 0    -12.913283      0.000000     67.307980
     2   0 1 1     -0.000000      0.000000      0.000000

 Total times  cpu:        3.5s     wall:        3.5s
